10
Atoms. Timestep: 0
1 61.2885 26.6098 1.675
1 27.9836 5.574 1.675
1 128.562 13.7386 1.675
1 96.855 72.7725 1.675
1 182.878 68.2097 1.675
1 38.4131 43.6102 1.675
1 172.981 36.4473 1.675
1 148.958 53.5338 1.675
1 30.3745 63.3515 1.675
1 180.946 48.3066 1.675
20
Atoms. Timestep: 1
1 61.2885 26.6098 1.675
1 27.9836 5.574 1.675
1 128.562 13.7386 1.675
1 96.855 72.7725 1.675
1 182.878 68.2097 1.675
1 38.4131 43.6102 1.675
1 172.981 36.4473 1.675
1 148.958 53.5338 1.675
1 30.3745 63.3515 1.675
1 180.946 48.3066 1.675
1 61.2885 25.2134 1.675
1 26.5938 5.71022 1.675
1 129.441 14.8243 1.675
1 97.9188 73.6772 1.675
1 183.163 69.5767 1.675
1 37.072 43.9994 1.675
1 173.334 37.7984 1.675
1 147.577 53.7423 1.675
1 30.9174 62.0649 1.675
1 181.464 49.6032 1.675
40
Atoms. Timestep: 2
1 61.2885 26.6098 1.675
1 27.9836 5.574 1.675
1 128.562 13.7386 1.675
1 96.855 72.7725 1.675
1 182.878 68.2097 1.675
1 38.4131 43.6102 1.675
1 172.981 36.4473 1.675
1 148.958 53.5338 1.675
1 30.3745 63.3515 1.675
1 180.946 48.3066 1.675
1 61.2885 25.2134 1.675
1 26.5938 5.71022 1.675
1 129.441 14.8243 1.675
1 97.9188 73.6772 1.675
1 183.163 69.5767 1.675
1 37.072 43.9994 1.675
1 173.334 37.7984 1.675
1 147.577 53.7423 1.675
1 30.9174 62.0649 1.675
1 181.464 49.6032 1.675
1 60.0791 27.3081 1.675
1 28.7965 6.7095 1.675
1 127.183 13.9563 1.675
1 97.1066 71.3989 1.675
1 183.919 67.279 1.675
1 38.7466 42.2541 1.675
1 173.974 35.466 1.675
1 149.468 52.2337 1.675
1 31.2173 64.465 1.675
1 181.809 47.2092 1.675
1 60.0791 24.5151 1.675
1 25.7809 4.57471 1.675
1 128.94 16.1277 1.675
1 97.6671 75.0509 1.675
1 182.122 70.5073 1.675
1 36.7385 45.3555 1.675
1 174.681 38.1682 1.675
1 146.706 52.6507 1.675
1 30.0746 60.9514 1.675
1 182.846 49.8025 1.675
80
Atoms. Timestep: 3
1 61.2885 26.6098 1.675
1 27.9836 5.574 1.675
1 128.562 13.7386 1.675
1 96.855 72.7725 1.675
1 182.878 68.2097 1.675
1 38.4131 43.6102 1.675
1 172.981 36.4473 1.675
1 148.958 53.5338 1.675
1 30.3745 63.3515 1.675
1 180.946 48.3066 1.675
1 61.2885 25.2134 1.675
1 26.5938 5.71022 1.675
1 129.441 14.8243 1.675
1 97.9188 73.6772 1.675
1 183.163 69.5767 1.675
1 37.072 43.9994 1.675
1 173.334 37.7984 1.675
1 147.577 53.7423 1.675
1 30.9174 62.0649 1.675
1 181.464 49.6032 1.675
1 60.0791 27.3081 1.675
1 28.7965 6.7095 1.675
1 127.183 13.9563 1.675
1 97.1066 71.3989 1.675
1 183.919 67.279 1.675
1 38.7466 42.2541 1.675
1 173.974 35.466 1.675
1 149.468 52.2337 1.675
1 31.2173 64.465 1.675
1 181.809 47.2092 1.675
1 60.0791 24.5151 1.675
1 25.7809 4.57471 1.675
1 128.94 16.1277 1.675
1 97.6671 75.0509 1.675
1 182.122 70.5073 1.675
1 36.7385 45.3555 1.675
1 174.681 38.1682 1.675
1 146.706 52.6507 1.675
1 30.0746 60.9514 1.675
1 182.846 49.8025 1.675
1 62.4979 27.3081 1.675
1 28.5605 4.30228 1.675
1 129.063 12.4351 1.675
1 95.5396 73.2414 1.675
1 181.551 67.7733 1.675
1 39.4208 44.577 1.675
1 171.634 36.0775 1.675
1 149.829 54.6254 1.675
1 28.9888 63.5247 1.675
1 179.563 48.1073 1.675
1 62.4979 24.5151 1.675
1 26.0168 6.98194 1.675
1 130.82 14.6065 1.675
1 99.2341 73.2083 1.675
1 184.49 70.0131 1.675
1 36.0644 43.0326 1.675
1 172.34 38.7797 1.675
1 147.067 55.0424 1.675
1 32.3031 61.8918 1.675
1 180.6 50.7006 1.675
1 58.8697 26.6098 1.675
1 28.2195 7.98122 1.675
1 126.305 12.8706 1.675
1 98.422 70.93 1.675
1 185.245 67.7154 1.675
1 37.739 41.2873 1.675
1 173.621 34.1149 1.675
1 148.597 51.1422 1.675
1 30.6743 65.7516 1.675
1 181.291 45.9126 1.675
1 60.0791 23.1187 1.675
1 24.3911 4.71093 1.675
1 129.818 17.2134 1.675
1 96.3518 0.11042 1.675
1 180.795 70.0709 1.675
1 35.3974 45.7447 1.675
1 175.034 39.5193 1.675
1 147.216 51.3507 1.675
1 28.6889 61.1246 1.675
1 183.365 51.0991 1.675
140
Atoms. Timestep: 4
1 61.2885 26.6098 1.675
1 27.9836 5.574 1.675
1 128.562 13.7386 1.675
1 96.855 72.7725 1.675
1 182.878 68.2097 1.675
1 38.4131 43.6102 1.675
1 172.981 36.4473 1.675
1 148.958 53.5338 1.675
1 30.3745 63.3515 1.675
1 180.946 48.3066 1.675
1 61.2885 25.2134 1.675
1 26.5938 5.71022 1.675
1 129.441 14.8243 1.675
1 97.9188 73.6772 1.675
1 183.163 69.5767 1.675
1 37.072 43.9994 1.675
1 173.334 37.7984 1.675
1 147.577 53.7423 1.675
1 30.9174 62.0649 1.675
1 181.464 49.6032 1.675
1 60.0791 27.3081 1.675
1 28.7965 6.7095 1.675
1 127.183 13.9563 1.675
1 97.1066 71.3989 1.675
1 183.919 67.279 1.675
1 38.7466 42.2541 1.675
1 173.974 35.466 1.675
1 149.468 52.2337 1.675
1 31.2173 64.465 1.675
1 181.809 47.2092 1.675
1 60.0791 24.5151 1.675
1 25.7809 4.57471 1.675
1 128.94 16.1277 1.675
1 97.6671 75.0509 1.675
1 182.122 70.5073 1.675
1 36.7385 45.3555 1.675
1 174.681 38.1682 1.675
1 146.706 52.6507 1.675
1 30.0746 60.9514 1.675
1 182.846 49.8025 1.675
1 62.4979 27.3081 1.675
1 28.5605 4.30228 1.675
1 129.063 12.4351 1.675
1 95.5396 73.2414 1.675
1 181.551 67.7733 1.675
1 39.4208 44.577 1.675
1 171.634 36.0775 1.675
1 149.829 54.6254 1.675
1 28.9888 63.5247 1.675
1 179.563 48.1073 1.675
1 62.4979 24.5151 1.675
1 26.0168 6.98194 1.675
1 130.82 14.6065 1.675
1 99.2341 73.2083 1.675
1 184.49 70.0131 1.675
1 36.0644 43.0326 1.675
1 172.34 38.7797 1.675
1 147.067 55.0424 1.675
1 32.3031 61.8918 1.675
1 180.6 50.7006 1.675
1 58.8697 26.6098 1.675
1 28.2195 7.98122 1.675
1 126.305 12.8706 1.675
1 98.422 70.93 1.675
1 185.245 67.7154 1.675
1 37.739 41.2873 1.675
1 173.621 34.1149 1.675
1 148.597 51.1422 1.675
1 30.6743 65.7516 1.675
1 181.291 45.9126 1.675
1 60.0791 23.1187 1.675
1 24.3911 4.71093 1.675
1 129.818 17.2134 1.675
1 96.3518 0.11042 1.675
1 180.795 70.0709 1.675
1 35.3974 45.7447 1.675
1 175.034 39.5193 1.675
1 147.216 51.3507 1.675
1 28.6889 61.1246 1.675
1 183.365 51.0991 1.675
1 60.0791 28.7045 1.675
1 30.1863 6.57328 1.675
1 126.682 15.2598 1.675
1 96.0428 70.4942 1.675
1 183.634 65.912 1.675
1 40.0877 41.8649 1.675
1 175.321 35.8357 1.675
1 150.849 52.0252 1.675
1 32.6029 64.2919 1.675
1 183.191 47.4084 1.675
1 58.8697 25.2134 1.675
1 26.3579 3.303 1.675
1 127.56 16.3455 1.675
1 98.7309 0.546223 1.675
1 182.407 71.8743 1.675
1 37.7462 46.3223 1.675
1 175.674 37.1868 1.675
1 145.325 52.8593 1.675
1 30.6175 59.6648 1.675
1 183.71 48.7051 1.675
1 63.7072 26.6098 1.675
1 27.7477 3.16678 1.675
1 128.185 11.3494 1.675
1 94.4758 72.3367 1.675
1 181.266 66.4063 1.675
1 39.0873 45.9331 1.675
1 170.641 37.0588 1.675
1 149.319 55.9254 1.675
1 28.146 62.4112 1.675
1 178.7 49.2047 1.675
1 63.7072 25.2134 1.675
1 26.8297 8.11744 1.675
1 131.698 15.6922 1.675
1 99.4858 71.8347 1.675
1 184.775 71.3801 1.675
1 34.7232 43.4218 1.675
1 170.994 38.4099 1.675
1 145.687 55.2509 1.675
1 33.1459 63.0053 1.675
1 181.119 51.9972 1.675
1 57.6603 27.3081 1.675
1 29.0324 9.11672 1.675
1 124.925 13.0884 1.675
1 98.6736 69.5564 1.675
1 185.531 69.0824 1.675
1 38.0725 39.9312 1.675
1 174.615 33.1335 1.675
1 149.107 49.8421 1.675
1 29.2886 65.9247 1.675
1 179.909 45.7133 1.675
1 58.8697 22.4204 1.675
1 23.8142 5.98265 1.675
1 131.197 16.9957 1.675
1 95.288 74.615 1.675
1 180.51 68.7039 1.675
1 35.0639 47.1008 1.675
1 174.04 40.5006 1.675
1 146.345 50.2591 1.675
1 27.8461 60.0111 1.675
1 182.501 52.1965 1.675
230
Atoms. Timestep: 5
1 61.2885 26.6098 1.675
1 27.9836 5.574 1.675
1 128.562 13.7386 1.675
1 96.855 72.7725 1.675
1 182.878 68.2097 1.675
1 38.4131 43.6102 1.675
1 172.981 36.4473 1.675
1 148.958 53.5338 1.675
1 30.3745 63.3515 1.675
1 180.946 48.3066 1.675
1 61.2885 25.2134 1.675
1 26.5938 5.71022 1.675
1 129.441 14.8243 1.675
1 97.9188 73.6772 1.675
1 183.163 69.5767 1.675
1 37.072 43.9994 1.675
1 173.334 37.7984 1.675
1 147.577 53.7423 1.675
1 30.9174 62.0649 1.675
1 181.464 49.6032 1.675
1 60.0791 27.3081 1.675
1 28.7965 6.7095 1.675
1 127.183 13.9563 1.675
1 97.1066 71.3989 1.675
1 183.919 67.279 1.675
1 38.7466 42.2541 1.675
1 173.974 35.466 1.675
1 149.468 52.2337 1.675
1 31.2173 64.465 1.675
1 181.809 47.2092 1.675
1 60.0791 24.5151 1.675
1 25.7809 4.57471 1.675
1 128.94 16.1277 1.675
1 97.6671 75.0509 1.675
1 182.122 70.5073 1.675
1 36.7385 45.3555 1.675
1 174.681 38.1682 1.675
1 146.706 52.6507 1.675
1 30.0746 60.9514 1.675
1 182.846 49.8025 1.675
1 62.4979 27.3081 1.675
1 28.5605 4.30228 1.675
1 129.063 12.4351 1.675
1 95.5396 73.2414 1.675
1 181.551 67.7733 1.675
1 39.4208 44.577 1.675
1 171.634 36.0775 1.675
1 149.829 54.6254 1.675
1 28.9888 63.5247 1.675
1 179.563 48.1073 1.675
1 62.4979 24.5151 1.675
1 26.0168 6.98194 1.675
1 130.82 14.6065 1.675
1 99.2341 73.2083 1.675
1 184.49 70.0131 1.675
1 36.0644 43.0326 1.675
1 172.34 38.7797 1.675
1 147.067 55.0424 1.675
1 32.3031 61.8918 1.675
1 180.6 50.7006 1.675
1 58.8697 26.6098 1.675
1 28.2195 7.98122 1.675
1 126.305 12.8706 1.675
1 98.422 70.93 1.675
1 185.245 67.7154 1.675
1 37.739 41.2873 1.675
1 173.621 34.1149 1.675
1 148.597 51.1422 1.675
1 30.6743 65.7516 1.675
1 181.291 45.9126 1.675
1 60.0791 23.1187 1.675
1 24.3911 4.71093 1.675
1 129.818 17.2134 1.675
1 96.3518 0.11042 1.675
1 180.795 70.0709 1.675
1 35.3974 45.7447 1.675
1 175.034 39.5193 1.675
1 147.216 51.3507 1.675
1 28.6889 61.1246 1.675
1 183.365 51.0991 1.675
1 60.0791 28.7045 1.675
1 30.1863 6.57328 1.675
1 126.682 15.2598 1.675
1 96.0428 70.4942 1.675
1 183.634 65.912 1.675
1 40.0877 41.8649 1.675
1 175.321 35.8357 1.675
1 150.849 52.0252 1.675
1 32.6029 64.2919 1.675
1 183.191 47.4084 1.675
1 58.8697 25.2134 1.675
1 26.3579 3.303 1.675
1 127.56 16.3455 1.675
1 98.7309 0.546223 1.675
1 182.407 71.8743 1.675
1 37.7462 46.3223 1.675
1 175.674 37.1868 1.675
1 145.325 52.8593 1.675
1 30.6175 59.6648 1.675
1 183.71 48.7051 1.675
1 63.7072 26.6098 1.675
1 27.7477 3.16678 1.675
1 128.185 11.3494 1.675
1 94.4758 72.3367 1.675
1 181.266 66.4063 1.675
1 39.0873 45.9331 1.675
1 170.641 37.0588 1.675
1 149.319 55.9254 1.675
1 28.146 62.4112 1.675
1 178.7 49.2047 1.675
1 63.7072 25.2134 1.675
1 26.8297 8.11744 1.675
1 131.698 15.6922 1.675
1 99.4858 71.8347 1.675
1 184.775 71.3801 1.675
1 34.7232 43.4218 1.675
1 170.994 38.4099 1.675
1 145.687 55.2509 1.675
1 33.1459 63.0053 1.675
1 181.119 51.9972 1.675
1 57.6603 27.3081 1.675
1 29.0324 9.11672 1.675
1 124.925 13.0884 1.675
1 98.6736 69.5564 1.675
1 185.531 69.0824 1.675
1 38.0725 39.9312 1.675
1 174.615 33.1335 1.675
1 149.107 49.8421 1.675
1 29.2886 65.9247 1.675
1 179.909 45.7133 1.675
1 58.8697 22.4204 1.675
1 23.8142 5.98265 1.675
1 131.197 16.9957 1.675
1 95.288 74.615 1.675
1 180.51 68.7039 1.675
1 35.0639 47.1008 1.675
1 174.04 40.5006 1.675
1 146.345 50.2591 1.675
1 27.8461 60.0111 1.675
1 182.501 52.1965 1.675
1 62.4979 28.7045 1.675
1 29.9503 4.16606 1.675
1 130.443 12.2173 1.675
1 40.7619 44.1878 1.675
1 171.281 34.7264 1.675
1 151.21 54.4169 1.675
1 28.4459 64.8113 1.675
1 179.045 46.8107 1.675
1 62.4979 23.1187 1.675
1 24.627 7.11815 1.675
1 131.321 13.303 1.675
1 100.298 74.113 1.675
1 36.3978 41.6765 1.675
1 172.693 40.1308 1.675
1 147.938 56.134 1.675
1 32.846 60.6052 1.675
1 179.218 50.5013 1.675
1 126.806 11.5671 1.675
1 186.287 66.7848 1.675
1 172.275 33.7451 1.675
1 31.5171 66.8651 1.675
1 182.154 44.8152 1.675
1 61.2885 22.4204 1.675
1 23.5782 3.57543 1.675
1 129.317 18.5169 1.675
1 96.1001 1.48404 1.675
1 179.754 71.0016 1.675
1 34.3898 44.7779 1.675
1 176.38 39.889 1.675
1 184.747 51.2983 1.675
1 58.8697 29.4028 1.675
1 30.7632 5.30157 1.675
1 125.302 15.4775 1.675
1 94.7274 70.9631 1.675
1 182.307 65.4757 1.675
1 41.0954 42.8317 1.675
1 176.315 34.8544 1.675
1 151.358 50.7251 1.675
1 33.4457 65.4054 1.675
1 184.055 46.3111 1.675
1 57.6603 24.5151 1.675
1 25.545 2.16749 1.675
1 127.059 17.6489 1.675
1 100.046 0.077316 1.675
1 181.366 72.8049 1.675
1 37.4127 47.6784 1.675
1 177.021 37.5566 1.675
1 144.816 54.1593 1.675
1 29.7748 58.5513 1.675
1 185.092 48.9043 1.675
1 64.9166 27.3081 1.675
1 28.3246 1.89506 1.675
1 128.686 10.0459 1.675
1 93.1604 72.8056 1.675
1 179.939 65.9699 1.675
1 40.0949 46.8999 1.675
1 169.294 36.6891 1.675
1 150.19 57.017 1.675
1 26.7603 62.5843 1.675
1 177.318 49.0054 1.675
1 64.9166 24.5151 1.675
1 26.2528 9.38916 1.675
1 133.078 15.4745 1.675
1 100.801 71.3658 1.675
1 183.734 72.3107 1.675
1 33.7156 42.455 1.675
1 170 39.3913 1.675
1 145.177 56.551 1.675
1 34.5316 62.8322 1.675
1 180.255 53.0946 1.675
1 56.451 26.6098 1.675
1 30.4222 8.98051 1.675
1 124.047 12.0026 1.675
1 97.6098 68.6517 1.675
1 186.857 69.5188 1.675
1 37.0648 38.9644 1.675
1 174.262 31.7825 1.675
1 150.487 49.6336 1.675
1 28.7457 67.2114 1.675
1 179.39 44.4167 1.675
1 57.6603 23.1187 1.675
1 22.4244 6.11887 1.675
1 132.075 18.0814 1.675
1 93.9726 75.084 1.675
1 179.183 68.2676 1.675
1 33.7228 47.49 1.675
1 174.393 41.8517 1.675
1 144.964 50.4676 1.675
1 28.3891 58.7245 1.675
1 183.02 53.4931 1.675
341
Atoms. Timestep: 6
1 61.2885 26.6098 1.675
1 27.9836 5.574 1.675
1 128.562 13.7386 1.675
1 96.855 72.7725 1.675
1 182.878 68.2097 1.675
1 38.4131 43.6102 1.675
1 172.981 36.4473 1.675
1 148.958 53.5338 1.675
1 30.3745 63.3515 1.675
1 180.946 48.3066 1.675
1 61.2885 25.2134 1.675
1 26.5938 5.71022 1.675
1 129.441 14.8243 1.675
1 97.9188 73.6772 1.675
1 183.163 69.5767 1.675
1 37.072 43.9994 1.675
1 173.334 37.7984 1.675
1 147.577 53.7423 1.675
1 30.9174 62.0649 1.675
1 181.464 49.6032 1.675
1 60.0791 27.3081 1.675
1 28.7965 6.7095 1.675
1 127.183 13.9563 1.675
1 97.1066 71.3989 1.675
1 183.919 67.279 1.675
1 38.7466 42.2541 1.675
1 173.974 35.466 1.675
1 149.468 52.2337 1.675
1 31.2173 64.465 1.675
1 181.809 47.2092 1.675
1 60.0791 24.5151 1.675
1 25.7809 4.57471 1.675
1 128.94 16.1277 1.675
1 97.6671 75.0509 1.675
1 182.122 70.5073 1.675
1 36.7385 45.3555 1.675
1 174.681 38.1682 1.675
1 146.706 52.6507 1.675
1 30.0746 60.9514 1.675
1 182.846 49.8025 1.675
1 62.4979 27.3081 1.675
1 28.5605 4.30228 1.675
1 129.063 12.4351 1.675
1 95.5396 73.2414 1.675
1 181.551 67.7733 1.675
1 39.4208 44.577 1.675
1 171.634 36.0775 1.675
1 149.829 54.6254 1.675
1 28.9888 63.5247 1.675
1 179.563 48.1073 1.675
1 62.4979 24.5151 1.675
1 26.0168 6.98194 1.675
1 130.82 14.6065 1.675
1 99.2341 73.2083 1.675
1 184.49 70.0131 1.675
1 36.0644 43.0326 1.675
1 172.34 38.7797 1.675
1 147.067 55.0424 1.675
1 32.3031 61.8918 1.675
1 180.6 50.7006 1.675
1 58.8697 26.6098 1.675
1 28.2195 7.98122 1.675
1 126.305 12.8706 1.675
1 98.422 70.93 1.675
1 185.245 67.7154 1.675
1 37.739 41.2873 1.675
1 173.621 34.1149 1.675
1 148.597 51.1422 1.675
1 30.6743 65.7516 1.675
1 181.291 45.9126 1.675
1 60.0791 23.1187 1.675
1 24.3911 4.71093 1.675
1 129.818 17.2134 1.675
1 96.3518 0.11042 1.675
1 180.795 70.0709 1.675
1 35.3974 45.7447 1.675
1 175.034 39.5193 1.675
1 147.216 51.3507 1.675
1 28.6889 61.1246 1.675
1 183.365 51.0991 1.675
1 60.0791 28.7045 1.675
1 30.1863 6.57328 1.675
1 126.682 15.2598 1.675
1 96.0428 70.4942 1.675
1 183.634 65.912 1.675
1 40.0877 41.8649 1.675
1 175.321 35.8357 1.675
1 150.849 52.0252 1.675
1 32.6029 64.2919 1.675
1 183.191 47.4084 1.675
1 58.8697 25.2134 1.675
1 26.3579 3.303 1.675
1 127.56 16.3455 1.675
1 98.7309 0.546223 1.675
1 182.407 71.8743 1.675
1 37.7462 46.3223 1.675
1 175.674 37.1868 1.675
1 145.325 52.8593 1.675
1 30.6175 59.6648 1.675
1 183.71 48.7051 1.675
1 63.7072 26.6098 1.675
1 27.7477 3.16678 1.675
1 128.185 11.3494 1.675
1 94.4758 72.3367 1.675
1 181.266 66.4063 1.675
1 39.0873 45.9331 1.675
1 170.641 37.0588 1.675
1 149.319 55.9254 1.675
1 28.146 62.4112 1.675
1 178.7 49.2047 1.675
1 63.7072 25.2134 1.675
1 26.8297 8.11744 1.675
1 131.698 15.6922 1.675
1 99.4858 71.8347 1.675
1 184.775 71.3801 1.675
1 34.7232 43.4218 1.675
1 170.994 38.4099 1.675
1 145.687 55.2509 1.675
1 33.1459 63.0053 1.675
1 181.119 51.9972 1.675
1 57.6603 27.3081 1.675
1 29.0324 9.11672 1.675
1 124.925 13.0884 1.675
1 98.6736 69.5564 1.675
1 185.531 69.0824 1.675
1 38.0725 39.9312 1.675
1 174.615 33.1335 1.675
1 149.107 49.8421 1.675
1 29.2886 65.9247 1.675
1 179.909 45.7133 1.675
1 58.8697 22.4204 1.675
1 23.8142 5.98265 1.675
1 131.197 16.9957 1.675
1 95.288 74.615 1.675
1 180.51 68.7039 1.675
1 35.0639 47.1008 1.675
1 174.04 40.5006 1.675
1 146.345 50.2591 1.675
1 27.8461 60.0111 1.675
1 182.501 52.1965 1.675
1 62.4979 28.7045 1.675
1 29.9503 4.16606 1.675
1 130.443 12.2173 1.675
1 40.7619 44.1878 1.675
1 171.281 34.7264 1.675
1 151.21 54.4169 1.675
1 28.4459 64.8113 1.675
1 179.045 46.8107 1.675
1 62.4979 23.1187 1.675
1 24.627 7.11815 1.675
1 131.321 13.303 1.675
1 100.298 74.113 1.675
1 36.3978 41.6765 1.675
1 172.693 40.1308 1.675
1 147.938 56.134 1.675
1 32.846 60.6052 1.675
1 179.218 50.5013 1.675
1 126.806 11.5671 1.675
1 186.287 66.7848 1.675
1 172.275 33.7451 1.675
1 31.5171 66.8651 1.675
1 182.154 44.8152 1.675
1 61.2885 22.4204 1.675
1 23.5782 3.57543 1.675
1 129.317 18.5169 1.675
1 96.1001 1.48404 1.675
1 179.754 71.0016 1.675
1 34.3898 44.7779 1.675
1 176.38 39.889 1.675
1 184.747 51.2983 1.675
1 58.8697 29.4028 1.675
1 30.7632 5.30157 1.675
1 125.302 15.4775 1.675
1 94.7274 70.9631 1.675
1 182.307 65.4757 1.675
1 41.0954 42.8317 1.675
1 176.315 34.8544 1.675
1 151.358 50.7251 1.675
1 33.4457 65.4054 1.675
1 184.055 46.3111 1.675
1 57.6603 24.5151 1.675
1 25.545 2.16749 1.675
1 127.059 17.6489 1.675
1 100.046 0.077316 1.675
1 181.366 72.8049 1.675
1 37.4127 47.6784 1.675
1 177.021 37.5566 1.675
1 144.816 54.1593 1.675
1 29.7748 58.5513 1.675
1 185.092 48.9043 1.675
1 64.9166 27.3081 1.675
1 28.3246 1.89506 1.675
1 128.686 10.0459 1.675
1 93.1604 72.8056 1.675
1 179.939 65.9699 1.675
1 40.0949 46.8999 1.675
1 169.294 36.6891 1.675
1 150.19 57.017 1.675
1 26.7603 62.5843 1.675
1 177.318 49.0054 1.675
1 64.9166 24.5151 1.675
1 26.2528 9.38916 1.675
1 133.078 15.4745 1.675
1 100.801 71.3658 1.675
1 183.734 72.3107 1.675
1 33.7156 42.455 1.675
1 170 39.3913 1.675
1 145.177 56.551 1.675
1 34.5316 62.8322 1.675
1 180.255 53.0946 1.675
1 56.451 26.6098 1.675
1 30.4222 8.98051 1.675
1 124.047 12.0026 1.675
1 97.6098 68.6517 1.675
1 186.857 69.5188 1.675
1 37.0648 38.9644 1.675
1 174.262 31.7825 1.675
1 150.487 49.6336 1.675
1 28.7457 67.2114 1.675
1 179.39 44.4167 1.675
1 57.6603 23.1187 1.675
1 22.4244 6.11887 1.675
1 132.075 18.0814 1.675
1 93.9726 75.084 1.675
1 179.183 68.2676 1.675
1 33.7228 47.49 1.675
1 174.393 41.8517 1.675
1 144.964 50.4676 1.675
1 28.3891 58.7245 1.675
1 183.02 53.4931 1.675
1 61.2885 29.4028 1.675
1 30.9992 7.70879 1.675
1 96.2944 69.1206 1.675
1 184.675 64.9814 1.675
1 40.4212 40.5088 1.675
1 151.72 53.1168 1.675
1 98.4793 1.91984 1.675
1 144.454 51.7677 1.675
1 32.0032 59.4917 1.675
1 186.102 71.8164 1.675
1 57.6603 28.7045 1.675
1 28.4555 10.3884 1.675
1 124.424 14.3918 1.675
1 99.989 69.0875 1.675
1 39.4136 39.542 1.675
1 175.961 33.5033 1.675
1 148.236 48.7505 1.675
1 58.8697 21.024 1.675
1 36.0716 48.0676 1.675
1 146.855 48.959 1.675
1 26.4605 60.1842 1.675
1 63.7072 29.4028 1.675
1 30.5273 2.89434 1.675
1 130.944 10.9139 1.675
1 41.7696 45.1546 1.675
1 169.935 34.3566 1.675
1 152.081 55.5084 1.675
1 27.0602 64.9844 1.675
1 177.663 46.6114 1.675
1 63.7072 22.4204 1.675
1 24.0501 8.38987 1.675
1 132.701 13.0853 1.675
1 101.613 73.6441 1.675
1 35.3902 40.7097 1.675
1 171.7 41.1121 1.675
1 147.428 57.434 1.675
1 34.2317 60.4321 1.675
1 178.355 51.5987 1.675
1 125.928 10.4814 1.675
1 186.001 65.4178 1.675
1 171.922 32.394 1.675
1 32.9028 66.692 1.675
1 183.537 45.0144 1.675
1 61.2885 21.024 1.675
1 22.1884 3.71165 1.675
1 127.937 18.7346 1.675
1 94.7848 1.95294 1.675
1 180.04 72.3686 1.675
1 33.0486 45.1671 1.675
1 176.733 41.2401 1.675
1 185.611 50.201 1.675
1 58.8697 30.7992 1.675
1 32.153 5.16535 1.675
1 124.801 16.781 1.675
1 93.6636 70.0584 1.675
1 182.022 64.1087 1.675
1 42.4365 42.4425 1.675
1 177.661 35.2242 1.675
1 152.739 50.5166 1.675
1 34.8314 65.2323 1.675
1 185.437 46.5103 1.675
1 56.451 25.2134 1.675
1 24.1552 2.30371 1.675
1 125.68 17.8667 1.675
1 101.11 0.982025 1.675
1 181.651 74.1719 1.675
1 38.4203 48.6452 1.675
1 177.374 38.9077 1.675
1 143.435 54.3678 1.675
1 30.3177 57.2647 1.675
1 185.956 47.807 1.675
1 66.126 26.6098 1.675
1 27.5117 0.759557 1.675
1 130.066 9.82817 1.675
1 92.9088 74.1792 1.675
1 178.898 66.9006 1.675
1 39.7615 48.256 1.675
1 168.941 35.338 1.675
1 151.571 56.8085 1.675
1 26.2174 63.8709 1.675
1 176.454 50.1028 1.675
1 66.126 25.2134 1.675
1 27.0657 10.5247 1.675
1 133.956 16.5602 1.675
1 101.865 72.2705 1.675
1 184.019 73.6777 1.675
1 34.0491 41.0989 1.675
1 170.353 40.7423 1.675
1 143.796 56.7595 1.675
1 35.0745 61.5456 1.675
1 178.873 52.8953 1.675
1 55.2416 27.3081 1.675
1 31.2351 10.116 1.675
1 124.548 10.6992 1.675
1 97.8614 67.2781 1.675
1 187.143 70.8858 1.675
1 35.7237 39.3536 1.675
1 172.915 31.4127 1.675
1 150.997 48.3335 1.675
1 29.5885 68.3248 1.675
1 178.008 44.2174 1.675
1 56.451 22.4204 1.675
1 21.6115 4.98337 1.675
1 131.574 19.3848 1.675
1 93.721 1.04823 1.675
1 178.142 69.1982 1.675
1 32.7151 46.5232 1.675
1 175.74 42.2215 1.675
1 144.093 49.3761 1.675
1 27.5463 57.611 1.675
1 182.156 54.5905 1.675
490
Atoms. Timestep: 7
1 61.2885 26.6098 1.675
1 27.9836 5.574 1.675
1 128.562 13.7386 1.675
1 96.855 72.7725 1.675
1 182.878 68.2097 1.675
1 38.4131 43.6102 1.675
1 172.981 36.4473 1.675
1 148.958 53.5338 1.675
1 30.3745 63.3515 1.675
1 180.946 48.3066 1.675
1 61.2885 25.2134 1.675
1 26.5938 5.71022 1.675
1 129.441 14.8243 1.675
1 97.9188 73.6772 1.675
1 183.163 69.5767 1.675
1 37.072 43.9994 1.675
1 173.334 37.7984 1.675
1 147.577 53.7423 1.675
1 30.9174 62.0649 1.675
1 181.464 49.6032 1.675
1 60.0791 27.3081 1.675
1 28.7965 6.7095 1.675
1 127.183 13.9563 1.675
1 97.1066 71.3989 1.675
1 183.919 67.279 1.675
1 38.7466 42.2541 1.675
1 173.974 35.466 1.675
1 149.468 52.2337 1.675
1 31.2173 64.465 1.675
1 181.809 47.2092 1.675
1 60.0791 24.5151 1.675
1 25.7809 4.57471 1.675
1 128.94 16.1277 1.675
1 97.6671 75.0509 1.675
1 182.122 70.5073 1.675
1 36.7385 45.3555 1.675
1 174.681 38.1682 1.675
1 146.706 52.6507 1.675
1 30.0746 60.9514 1.675
1 182.846 49.8025 1.675
1 62.4979 27.3081 1.675
1 28.5605 4.30228 1.675
1 129.063 12.4351 1.675
1 95.5396 73.2414 1.675
1 181.551 67.7733 1.675
1 39.4208 44.577 1.675
1 171.634 36.0775 1.675
1 149.829 54.6254 1.675
1 28.9888 63.5247 1.675
1 179.563 48.1073 1.675
1 62.4979 24.5151 1.675
1 26.0168 6.98194 1.675
1 130.82 14.6065 1.675
1 99.2341 73.2083 1.675
1 184.49 70.0131 1.675
1 36.0644 43.0326 1.675
1 172.34 38.7797 1.675
1 147.067 55.0424 1.675
1 32.3031 61.8918 1.675
1 180.6 50.7006 1.675
1 58.8697 26.6098 1.675
1 28.2195 7.98122 1.675
1 126.305 12.8706 1.675
1 98.422 70.93 1.675
1 185.245 67.7154 1.675
1 37.739 41.2873 1.675
1 173.621 34.1149 1.675
1 148.597 51.1422 1.675
1 30.6743 65.7516 1.675
1 181.291 45.9126 1.675
1 60.0791 23.1187 1.675
1 24.3911 4.71093 1.675
1 129.818 17.2134 1.675
1 96.3518 0.11042 1.675
1 180.795 70.0709 1.675
1 35.3974 45.7447 1.675
1 175.034 39.5193 1.675
1 147.216 51.3507 1.675
1 28.6889 61.1246 1.675
1 183.365 51.0991 1.675
1 60.0791 28.7045 1.675
1 30.1863 6.57328 1.675
1 126.682 15.2598 1.675
1 96.0428 70.4942 1.675
1 183.634 65.912 1.675
1 40.0877 41.8649 1.675
1 175.321 35.8357 1.675
1 150.849 52.0252 1.675
1 32.6029 64.2919 1.675
1 183.191 47.4084 1.675
1 58.8697 25.2134 1.675
1 26.3579 3.303 1.675
1 127.56 16.3455 1.675
1 98.7309 0.546223 1.675
1 182.407 71.8743 1.675
1 37.7462 46.3223 1.675
1 175.674 37.1868 1.675
1 145.325 52.8593 1.675
1 30.6175 59.6648 1.675
1 183.71 48.7051 1.675
1 63.7072 26.6098 1.675
1 27.7477 3.16678 1.675
1 128.185 11.3494 1.675
1 94.4758 72.3367 1.675
1 181.266 66.4063 1.675
1 39.0873 45.9331 1.675
1 170.641 37.0588 1.675
1 149.319 55.9254 1.675
1 28.146 62.4112 1.675
1 178.7 49.2047 1.675
1 63.7072 25.2134 1.675
1 26.8297 8.11744 1.675
1 131.698 15.6922 1.675
1 99.4858 71.8347 1.675
1 184.775 71.3801 1.675
1 34.7232 43.4218 1.675
1 170.994 38.4099 1.675
1 145.687 55.2509 1.675
1 33.1459 63.0053 1.675
1 181.119 51.9972 1.675
1 57.6603 27.3081 1.675
1 29.0324 9.11672 1.675
1 124.925 13.0884 1.675
1 98.6736 69.5564 1.675
1 185.531 69.0824 1.675
1 38.0725 39.9312 1.675
1 174.615 33.1335 1.675
1 149.107 49.8421 1.675
1 29.2886 65.9247 1.675
1 179.909 45.7133 1.675
1 58.8697 22.4204 1.675
1 23.8142 5.98265 1.675
1 131.197 16.9957 1.675
1 95.288 74.615 1.675
1 180.51 68.7039 1.675
1 35.0639 47.1008 1.675
1 174.04 40.5006 1.675
1 146.345 50.2591 1.675
1 27.8461 60.0111 1.675
1 182.501 52.1965 1.675
1 62.4979 28.7045 1.675
1 29.9503 4.16606 1.675
1 130.443 12.2173 1.675
1 40.7619 44.1878 1.675
1 171.281 34.7264 1.675
1 151.21 54.4169 1.675
1 28.4459 64.8113 1.675
1 179.045 46.8107 1.675
1 62.4979 23.1187 1.675
1 24.627 7.11815 1.675
1 131.321 13.303 1.675
1 100.298 74.113 1.675
1 36.3978 41.6765 1.675
1 172.693 40.1308 1.675
1 147.938 56.134 1.675
1 32.846 60.6052 1.675
1 179.218 50.5013 1.675
1 126.806 11.5671 1.675
1 186.287 66.7848 1.675
1 172.275 33.7451 1.675
1 31.5171 66.8651 1.675
1 182.154 44.8152 1.675
1 61.2885 22.4204 1.675
1 23.5782 3.57543 1.675
1 129.317 18.5169 1.675
1 96.1001 1.48404 1.675
1 179.754 71.0016 1.675
1 34.3898 44.7779 1.675
1 176.38 39.889 1.675
1 184.747 51.2983 1.675
1 58.8697 29.4028 1.675
1 30.7632 5.30157 1.675
1 125.302 15.4775 1.675
1 94.7274 70.9631 1.675
1 182.307 65.4757 1.675
1 41.0954 42.8317 1.675
1 176.315 34.8544 1.675
1 151.358 50.7251 1.675
1 33.4457 65.4054 1.675
1 184.055 46.3111 1.675
1 57.6603 24.5151 1.675
1 25.545 2.16749 1.675
1 127.059 17.6489 1.675
1 100.046 0.077316 1.675
1 181.366 72.8049 1.675
1 37.4127 47.6784 1.675
1 177.021 37.5566 1.675
1 144.816 54.1593 1.675
1 29.7748 58.5513 1.675
1 185.092 48.9043 1.675
1 64.9166 27.3081 1.675
1 28.3246 1.89506 1.675
1 128.686 10.0459 1.675
1 93.1604 72.8056 1.675
1 179.939 65.9699 1.675
1 40.0949 46.8999 1.675
1 169.294 36.6891 1.675
1 150.19 57.017 1.675
1 26.7603 62.5843 1.675
1 177.318 49.0054 1.675
1 64.9166 24.5151 1.675
1 26.2528 9.38916 1.675
1 133.078 15.4745 1.675
1 100.801 71.3658 1.675
1 183.734 72.3107 1.675
1 33.7156 42.455 1.675
1 170 39.3913 1.675
1 145.177 56.551 1.675
1 34.5316 62.8322 1.675
1 180.255 53.0946 1.675
1 56.451 26.6098 1.675
1 30.4222 8.98051 1.675
1 124.047 12.0026 1.675
1 97.6098 68.6517 1.675
1 186.857 69.5188 1.675
1 37.0648 38.9644 1.675
1 174.262 31.7825 1.675
1 150.487 49.6336 1.675
1 28.7457 67.2114 1.675
1 179.39 44.4167 1.675
1 57.6603 23.1187 1.675
1 22.4244 6.11887 1.675
1 132.075 18.0814 1.675
1 93.9726 75.084 1.675
1 179.183 68.2676 1.675
1 33.7228 47.49 1.675
1 174.393 41.8517 1.675
1 144.964 50.4676 1.675
1 28.3891 58.7245 1.675
1 183.02 53.4931 1.675
1 61.2885 29.4028 1.675
1 30.9992 7.70879 1.675
1 96.2944 69.1206 1.675
1 184.675 64.9814 1.675
1 40.4212 40.5088 1.675
1 151.72 53.1168 1.675
1 98.4793 1.91984 1.675
1 144.454 51.7677 1.675
1 32.0032 59.4917 1.675
1 186.102 71.8164 1.675
1 57.6603 28.7045 1.675
1 28.4555 10.3884 1.675
1 124.424 14.3918 1.675
1 99.989 69.0875 1.675
1 39.4136 39.542 1.675
1 175.961 33.5033 1.675
1 148.236 48.7505 1.675
1 58.8697 21.024 1.675
1 36.0716 48.0676 1.675
1 146.855 48.959 1.675
1 26.4605 60.1842 1.675
1 63.7072 29.4028 1.675
1 30.5273 2.89434 1.675
1 130.944 10.9139 1.675
1 41.7696 45.1546 1.675
1 169.935 34.3566 1.675
1 152.081 55.5084 1.675
1 27.0602 64.9844 1.675
1 177.663 46.6114 1.675
1 63.7072 22.4204 1.675
1 24.0501 8.38987 1.675
1 132.701 13.0853 1.675
1 101.613 73.6441 1.675
1 35.3902 40.7097 1.675
1 171.7 41.1121 1.675
1 147.428 57.434 1.675
1 34.2317 60.4321 1.675
1 178.355 51.5987 1.675
1 125.928 10.4814 1.675
1 186.001 65.4178 1.675
1 171.922 32.394 1.675
1 32.9028 66.692 1.675
1 183.537 45.0144 1.675
1 61.2885 21.024 1.675
1 22.1884 3.71165 1.675
1 127.937 18.7346 1.675
1 94.7848 1.95294 1.675
1 180.04 72.3686 1.675
1 33.0486 45.1671 1.675
1 176.733 41.2401 1.675
1 185.611 50.201 1.675
1 58.8697 30.7992 1.675
1 32.153 5.16535 1.675
1 124.801 16.781 1.675
1 93.6636 70.0584 1.675
1 182.022 64.1087 1.675
1 42.4365 42.4425 1.675
1 177.661 35.2242 1.675
1 152.739 50.5166 1.675
1 34.8314 65.2323 1.675
1 185.437 46.5103 1.675
1 56.451 25.2134 1.675
1 24.1552 2.30371 1.675
1 125.68 17.8667 1.675
1 101.11 0.982025 1.675
1 181.651 74.1719 1.675
1 38.4203 48.6452 1.675
1 177.374 38.9077 1.675
1 143.435 54.3678 1.675
1 30.3177 57.2647 1.675
1 185.956 47.807 1.675
1 66.126 26.6098 1.675
1 27.5117 0.759557 1.675
1 130.066 9.82817 1.675
1 92.9088 74.1792 1.675
1 178.898 66.9006 1.675
1 39.7615 48.256 1.675
1 168.941 35.338 1.675
1 151.571 56.8085 1.675
1 26.2174 63.8709 1.675
1 176.454 50.1028 1.675
1 66.126 25.2134 1.675
1 27.0657 10.5247 1.675
1 133.956 16.5602 1.675
1 101.865 72.2705 1.675
1 184.019 73.6777 1.675
1 34.0491 41.0989 1.675
1 170.353 40.7423 1.675
1 143.796 56.7595 1.675
1 35.0745 61.5456 1.675
1 178.873 52.8953 1.675
1 55.2416 27.3081 1.675
1 31.2351 10.116 1.675
1 124.548 10.6992 1.675
1 97.8614 67.2781 1.675
1 187.143 70.8858 1.675
1 35.7237 39.3536 1.675
1 172.915 31.4127 1.675
1 150.997 48.3335 1.675
1 29.5885 68.3248 1.675
1 178.008 44.2174 1.675
1 56.451 22.4204 1.675
1 21.6115 4.98337 1.675
1 131.574 19.3848 1.675
1 93.721 1.04823 1.675
1 178.142 69.1982 1.675
1 32.7151 46.5232 1.675
1 175.74 42.2215 1.675
1 144.093 49.3761 1.675
1 27.5463 57.611 1.675
1 182.156 54.5905 1.675
1 187.613 67.2212 1.675
1 30.9742 68.1517 1.675
1 181.636 43.5186 1.675
1 130.195 19.6026 1.675
1 97.1639 2.38874 1.675
1 178.428 70.5652 1.675
1 185.266 52.595 1.675
1 26.1219 0.895774 1.675
1 178.014 36.5753 1.675
1 64.9166 28.7045 1.675
1 29.7144 1.75884 1.675
1 127.808 8.96022 1.675
1 92.0966 71.9009 1.675
1 179.654 64.6029 1.675
1 41.4361 46.5107 1.675
1 168.301 37.6704 1.675
1 149.68 58.3171 1.675
1 25.9175 61.4708 1.675
1 176.799 47.7088 1.675
1 64.9166 23.1187 1.675
1 24.863 9.52537 1.675
1 133.579 14.171 1.675
1 101.053 69.9922 1.675
1 32.3745 42.8442 1.675
1 168.654 39.0215 1.675
1 146.048 57.6425 1.675
1 35.3743 63.9457 1.675
1 180.774 54.3912 1.675
1 122.668 12.2204 1.675
1 187.899 68.5882 1.675
1 37.3983 37.6083 1.675
1 175.255 30.8011 1.675
1 27.36 67.3845 1.675
1 180.254 43.3193 1.675
1 21.8474 7.39059 1.675
1 133.455 17.8636 1.675
1 33.3893 48.8461 1.675
1 173.4 42.833 1.675
1 184.402 53.6923 1.675
1 61.2885 30.7992 1.675
1 32.389 7.57257 1.675
1 95.2306 68.2159 1.675
1 184.389 63.6144 1.675
1 41.7624 40.1196 1.675
1 153.1 52.9083 1.675
1 99.5431 2.82455 1.675
1 143.074 51.9762 1.675
1 32.5462 58.2051 1.675
1 186.387 73.1834 1.675
1 56.451 29.4028 1.675
1 29.2683 11.5239 1.675
1 123.045 14.6096 1.675