LAMMPS input file
#
11905 atoms
0 bonds
0 angles
0 dihedrals
0 impropers
#
2 atom types
#
0 200.756719002986 xlo xhi
0 75.409338204 ylo yhi
0 6.7 zlo zhi
#
Masses
#
1 12
#
Atoms
#
1 1 1 61.2884809654151 26.6098352651477 1.675
2 1 1 27.9835962396402 5.57399915836878 1.675
3 1 1 128.562381510796 13.73855417857 1.675
4 1 1 96.8549783537527 72.772528342382 1.675
5 1 1 182.877712036826 68.2096757154901 1.675
6 1 1 38.4131375339142 43.6101747126575 1.675
7 1 1 172.980849636045 36.4472879265797 1.675
8 1 1 148.957991972591 53.5338023456236 1.675
9 1 1 30.374476273201 63.3515286869559 1.675
10 1 1 180.945612136326 48.3065671102917 1.675
11 1 1 61.2884809578955 25.2133660391477 1.675
12 1 1 26.5937864598492 5.71021617332034 1.675
13 1 1 129.440655491428 14.824261834484 1.675
14 1 1 97.9187586786331 73.6772369803216 1.675
15 1 1 183.163069930679 69.5766787043605 1.675
16 1 1 37.0720084259823 43.9994034564865 1.675
17 1 1 173.333925855508 37.798385066838 1.675
18 1 1 147.577177131684 53.7423129551785 1.675
19 1 1 30.9173966910187 62.0649192982595 1.675
20 1 1 181.46414196263 49.6031985607809 1.675
21 1 1 60.0791031471977 27.3080698904484 1.675
22 1 1 28.7964685303464 6.70950122272934 1.675
23 1 1 127.182994109896 13.9563079326242 1.675
24 1 1 97.1065888482167 71.3989132368155 1.675
25 1 1 183.918892400856 67.279047030824 1.675
26 1 1 38.7466201045959 42.2541084627211 1.675
27 1 1 173.97439596806 35.4659663761674 1.675
28 1 1 149.467823905099 52.2337263094783 1.675
29 1 1 31.2172524823156 64.4650162533506 1.675
30 1 1 181.809262993391 47.2091913787138 1.675
31 1 1 60.0791031296521 24.5151314312127 1.675
32 1 1 25.7809141650668 4.57471411187782 1.675
33 1 1 128.939542081557 16.1277232453484 1.675
34 1 1 97.6671481891001 75.0508520867913 1.675
35 1 1 182.12188956999 70.5073073927643 1.675
36 1 1 36.7385258601686 45.35546970762 1.675
37 1 1 174.680548413897 38.1681606533828 1.675
38 1 1 146.706194217254 52.6507475371037 1.675
39 1 1 30.0746204859013 60.9514317288395 1.675
40 1 1 182.846322652444 49.8024542755563 1.675
41 1 1 62.4978587961651 27.3080698687413 1.675
42 1 1 28.5605337311165 4.30228007378521 1.675
43 1 1 129.063494925346 12.4350927695045 1.675
44 1 1 95.5395875289559 73.2414348119527 1.675
45 1 1 181.551173773444 67.7733014094771 1.675
46 1 1 39.4207840725469 44.5770122131439 1.675
47 1 1 171.634227078984 36.0775123352008 1.675
48 1 1 149.828974883102 54.6253677668251 1.675
49 1 1 28.9887796485192 63.5246505039245 1.675
50 1 1 179.563431447227 48.1073113905546 1.675
51 1 1 62.4978587786194 24.5151314181884 1.675
52 1 1 26.0168489729381 6.981935259975 1.675
53 1 1 130.820042891545 14.6065080754782 1.675
54 1 1 99.2341495017467 73.2083305060289 1.675
55 1 1 184.489608195628 70.0130530056116 1.675
56 1 1 36.0643618908204 43.0325659523829 1.675
57 1 1 172.34037951997 38.7797066136837 1.675
58 1 1 147.067345203842 55.042388993154 1.675
59 1 1 32.303093315079 61.8917974763166 1.675
60 1 1 180.600491101626 50.7005742892586 1.675
61 1 1 58.8697253139412 26.6098352911962 1.675
62 1 1 28.2195310434354 7.981220309384 1.675
63 1 1 126.304720117572 12.8706002861687 1.675
64 1 1 98.4219796713303 70.9300067625228 1.675
65 1 1 185.245430665805 67.7154213320751 1.675
66 1 1 37.738973569434 41.2872709586175 1.675
67 1 1 173.621319743747 34.1148692371765 1.675
68 1 1 148.596840998507 51.1421608851502 1.675
69 1 1 30.6743320691166 65.7516256439959 1.675
70 1 1 181.290733162432 45.912559930086 1.675
71 1 1 60.0791031221325 23.1186622052127 1.675
72 1 1 24.3911043852758 4.71093112682939 1.675
73 1 1 129.817816069983 17.2134308949568 1.675
74 1 1 96.3517573676698 0.110420361806021 1.675
75 1 1 180.795351303475 70.0709330962752 1.675
76 1 1 35.3973967550312 45.7446984610777 1.675
77 1 1 175.033624643061 39.5192577911062 1.675
78 1 1 147.216026149763 51.3506715009584 1.675
79 1 1 28.6889238612195 61.1245535458081 1.675
80 1 1 183.364852488058 51.0990857223226 1.675
81 1 1 60.0791031597303 28.7045391164484 1.675
82 1 1 30.1862783096485 6.57328420278865 1.675
83 1 1 126.681880700025 15.2597693434886 1.675
84 1 1 96.0428085200886 70.4942046026947 1.675
85 1 1 183.633534502095 65.912044042978 1.675
86 1 1 40.0877492111306 41.8648797140778 1.675
87 1 1 175.321018526449 35.8357419627121 1.675
88 1 1 150.848638745258 52.0252156949666 1.675
89 1 1 32.602949106376 64.2918944314076 1.675
90 1 1 183.191443683205 47.4084470934891 1.675
91 1 1 58.8697253064216 25.2133660478305 1.675
92 1 1 26.3578516565431 3.30299502729425 1.675
93 1 1 127.560154680657 16.3454769994026 1.675
94 1 1 98.730928520476 0.546222513093369 1.675
95 1 1 182.407247473658 71.874310379586 1.675
96 1 1 37.7461723988013 46.3223072081064 1.675
97 1 1 175.674094745912 37.1868391029705 1.675
98 1 1 145.325379376348 52.8592581466585 1.675
99 1 1 30.617540903719 59.6648223401431 1.675
100 1 1 183.709973509509 48.7050785439783 1.675
101 1 1 63.707236616889 26.609835247782 1.675
102 1 1 27.7476614444865 3.1667780065066 1.675
103 1 1 128.185220940817 11.3493851167433 1.675
104 1 1 94.4758071943323 72.3367261854695 1.675
105 1 1 181.265815874683 66.406298421631 1.675
106 1 1 39.0873015067332 45.9330784642774 1.675
107 1 1 170.640680743446 37.0588338820465 1.675
108 1 1 149.31914295526 55.9254438048006 1.675
109 1 1 28.1460034354074 62.4111629405553 1.675
110 1 1 178.699780586223 49.2046871190323 1.675
111 1 1 63.7072366093694 25.213366021782 1.675
112 1 1 26.8297212636443 8.11743732433557 1.675
113 1 1 131.698316879972 15.6922157250865 1.675
114 1 1 99.4857599962107 71.8347154004623 1.675
115 1 1 184.774966099296 71.3800559924333 1.675
116 1 1 34.7232327828884 43.4217946962119 1.675
117 1 1 170.993756960254 38.4099310319731 1.675
118 1 1 145.686530364432 55.2508996126225 1.675
119 1 1 33.1458695241936 63.0052850427112 1.675
120 1 1 181.11902093724 51.9972057360249 1.675
121 1 1 57.6603474907108 27.308069907814 1.675
122 1 1 29.0324033341416 9.11672237374456 1.675
123 1 1 124.925332716673 13.0883540402228 1.675
124 1 1 98.6735901657943 69.5563916569562 1.675
125 1 1 185.530788569472 69.0824243188967 1.675
126 1 1 38.0724561401157 39.9312047086811 1.675
127 1 1 174.614866075762 33.1335476867642 1.675
128 1 1 149.106672931016 49.8420848490049 1.675
129 1 1 29.2886354456777 65.9247474709132 1.675
130 1 1 179.908552473333 45.7133042103489 1.675
131 1 1 58.8697252938891 22.4204275972777 1.675
132 1 1 23.8141668983647 5.98265021348405 1.675
133 1 1 131.197203470101 16.9956771359509 1.675
134 1 1 95.2879770330463 74.6150499393227 1.675
135 1 1 180.509993404715 68.7039301084292 1.675
136 1 1 35.0639141892175 47.1007647122113 1.675
137 1 1 174.040078314568 40.5005793450851 1.675
138 1 1 146.345043243171 50.2591060766303 1.675
139 1 1 27.8461476481077 60.0110659824388 1.675
140 1 1 182.501201634933 52.196461457001 1.675
141 1 1 62.4978588086977 28.7045390947413 1.675
142 1 1 29.9503435104185 4.16606305384451 1.675
143 1 1 130.442882325464 12.2173390104986 1.675
144 1 1 40.7619131790816 44.1877834645005 1.675
145 1 1 171.28115085467 34.7264151962099 1.675
146 1 1 151.20978972326 54.4168571523134 1.675
147 1 1 28.4458592353202 64.8112598945699 1.675
148 1 1 179.044901616268 46.8106799419269 1.675
149 1 1 62.4978587710999 23.1186621921884 1.675
150 1 1 24.6270391931471 7.11815227492656 1.675
151 1 1 131.321156306095 13.3030466664126 1.675
152 1 1 100.297929833123 74.1130391363309 1.675
153 1 1 36.3978444615021 41.6764997024465 1.675
154 1 1 172.693455749134 40.1308037514072 1.675
155 1 1 147.938328114353 56.1339544143554 1.675
156 1 1 32.8460137328967 60.6051880876202 1.675
157 1 1 179.218310412528 50.5013185695215 1.675
158 1 1 126.805833532122 11.5671388771031 1.675
159 1 1 186.286611029835 66.7847926474089 1.675
160 1 1 172.274697186686 33.7450936457976 1.675
161 1 1 31.5171082782312 66.8651132103906 1.675
162 1 1 182.154384019496 44.815184198508 1.675
163 1 1 61.2884809428564 22.4204275842534 1.675
164 1 1 23.5782320986458 3.57542905955078 1.675
165 1 1 129.316702660113 18.5168923058212 1.675
166 1 1 96.1001468781369 1.48403546827581 1.675
167 1 1 179.754170936104 71.0015617772037 1.675
168 1 1 34.3897502198693 44.7778609569741 1.675
169 1 1 176.380247201449 39.889033377651 1.675
170 1 1 184.747033177872 51.298341437098 1.675
171 1 1 58.8697253415129 29.4027737417491 1.675
172 1 1 30.7632158011247 5.30156511820507 1.675
173 1 1 125.302493300689 15.4775231074462 1.675
174 1 1 94.7274176952917 70.9631110722654 1.675
175 1 1 182.306996238713 65.4756697369649 1.675
176 1 1 41.0953957497632 42.8317172145641 1.675
177 1 1 176.314564858464 34.8544204122998 1.675
178 1 1 151.358470677767 50.7251396588213 1.675
179 1 1 33.4457253154905 65.4053819978023 1.675
180 1 1 184.055094540269 46.3110713619111 1.675
181 1 1 57.6603474731652 24.5151314485784 1.675
182 1 1 25.5449793699131 2.16749296001565 1.675
183 1 1 127.059041270786 17.648938410267 1.675
184 1 1 100.04631934359 0.0773160388006708 1.675
185 1 1 181.366067112969 72.8049390679897 1.675
186 1 1 37.4126898329876 47.6783734592399 1.675
187 1 1 177.020717304301 37.5566146895152 1.675
188 1 1 144.815547448506 54.159334184634 1.675
189 1 1 29.7747646986016 58.5513347707231 1.675
190 1 1 185.092154199323 48.9043342587537 1.675
191 1 1 64.916614447639 27.3080698513756 1.675
192 1 1 28.3245989359628 1.89505892192303 1.675
193 1 1 128.686334355367 10.0459237076778 1.675
194 1 1 93.1604163695355 72.8056326550402 1.675
195 1 1 179.939277611301 65.969924115618 1.675
196 1 1 40.0949480453659 46.8999159647638 1.675
197 1 1 169.29405818373 36.6890583003359 1.675
198 1 1 150.190125865771 57.017009226002 1.675
199 1 1 26.7603068107256 62.5842847575238 1.675
200 1 1 177.317599895694 49.0054314092187 1.675
201 1 1 64.9166144300933 24.5151314008228 1.675
202 1 1 26.2527837767333 9.38915641099022 1.675
203 1 1 133.07770428009 15.4744619660806 1.675
204 1 1 100.801150819324 71.3658089261696 1.675
205 1 1 183.733785738607 72.310684680837 1.675
206 1 1 33.7155862407851 42.4549571993427 1.675
207 1 1 170.000210624716 39.3912525788187 1.675
208 1 1 145.17669843659 56.550975650598 1.675
209 1 1 34.531566148254 62.8321632207683 1.675
210 1 1 180.255370084115 53.0945814707032 1.675
211 1 1 56.4509696574543 26.6098353085619 1.675
212 1 1 30.4222131134436 8.98050535380387 1.675
213 1 1 124.047058724348 12.0026463937673 1.675
214 1 1 97.6098098376662 68.6516830228355 1.675
215 1 1 186.857326834421 69.5187986201478 1.675
216 1 1 37.0648096049538 38.9643672045775 1.675
217 1 1 174.261789851448 31.7824505477733 1.675
218 1 1 150.487487771174 49.6335742344932 1.675
219 1 1 28.7457150324787 67.2113568615586 1.675
220 1 1 179.390022642374 44.4166727617211 1.675
221 1 1 57.6603474706586 23.1186622138955 1.675
222 1 1 22.4243571195517 6.11886723841387 1.675
223 1 1 132.075477458528 18.0813847855593 1.675
224 1 1 93.9725862082494 75.0839564088935 1.675
225 1 1 179.183455141333 68.2675558024161 1.675
226 1 1 33.7227850840801 47.489993465669 1.675
227 1 1 174.393154543732 41.8516764828086 1.675
228 1 1 144.964228402264 50.4676166861852 1.675
229 1 1 28.3890680659254 58.7244565937424 1.675
230 1 1 183.019731470546 53.4930929037673 1.675
231 1 1 61.2884809904803 29.402773720042 1.675
232 1 1 30.9991506003547 7.70878626714921 1.675
233 1 1 96.2944190145526 69.1205894971282 1.675
234 1 1 184.674714866125 64.9814153583118 1.675
235 1 1 40.4212317818123 40.5088134641413 1.675
236 1 1 151.719621655769 53.1167811161681 1.675
237 1 1 98.479318030943 1.91983761956316 1.675
238 1 1 144.454396469755 51.7676927223305 1.675
239 1 1 32.0032375277793 59.4917005182002 1.675
240 1 1 186.101504364244 71.8164302936843 1.675
241 1 1 57.6603475032434 28.704539133814 1.675
242 1 1 28.4554658472305 10.3884414603992 1.675
243 1 1 124.424219306802 14.3918154510872 1.675
244 1 1 99.9889809889079 69.0874851826635 1.675
245 1 1 39.4135852466504 39.5419759600377 1.675
246 1 1 175.96148863415 33.5033232733089 1.675
247 1 1 148.235690024423 48.7505194246768 1.675
248 1 1 58.8697252863695 21.0239583712777 1.675
249 1 1 36.0715607278502 48.0676022126977 1.675
250 1 1 146.85487517568 48.959030040485 1.675
251 1 1 26.4604510234259 60.1841877994074 1.675
252 1 1 63.7072366394476 29.4027736983349 1.675
253 1 1 30.5272810018948 2.89434396926094 1.675
254 1 1 130.943995740014 10.9138776014331 1.675
255 1 1 41.7695597177142 45.1546209649869 1.675
256 1 1 169.934528297609 34.3566396048311 1.675
257 1 1 152.080772633771 55.5084225735148 1.675
258 1 1 27.0601626118813 64.9843817214872 1.675
259 1 1 177.66272092717 46.6114242221897 1.675
260 1 1 63.7072365918238 22.4204275712292 1.675
261 1 1 24.0501017062361 8.38987136158122 1.675
262 1 1 132.700543706213 13.0852929074068 1.675
263 1 1 101.613320656236 73.6441326620382 1.675
264 1 1 35.3901979263402 40.7096621983429 1.675
265 1 1 171.699909420641 41.1121253053861 1.675
266 1 1 147.428496186511 57.4340304523309 1.675
267 1 1 34.2317103569571 60.4320662656772 1.675
268 1 1 178.354659551524 51.5986942979991 1.675
269 1 1 125.927559547593 10.481431224342 1.675
270 1 1 186.001253131074 65.4177896595629 1.675
271 1 1 171.921620962372 32.3939965068067 1.675
272 1 1 32.9028049022915 66.6919913884476 1.675
273 1 1 183.53656470931 45.0144399132834 1.675
274 1 1 61.2884809353369 21.0239583582534 1.675
275 1 1 22.1884223188548 3.71164607450234 1.675
276 1 1 127.937315260776 18.7346460697788 1.675
277 1 1 94.7847560567066 1.95294194729049 1.675
278 1 1 180.039528839772 72.3685647640254 1.675
279 1 1 33.0486211119373 45.1670897008031 1.675
280 1 1 176.733323430613 41.2401305153744 1.675
281 1 1 185.610684034937 50.20096570552 1.675
282 1 1 58.8697253540455 30.7992429677491 1.675
283 1 1 32.1530255804268 5.16534809826438 1.675
284 1 1 124.801379890818 16.7809845183106 1.675
285 1 1 93.6636373606682 70.0584024457821 1.675
286 1 1 182.021638339953 64.1086667491189 1.675
287 1 1 42.4365248562979 42.4424884659208 1.675
288 1 1 177.661187416852 35.2241959988446 1.675
289 1 1 152.739285517925 50.5166290443096 1.675
290 1 1 34.8314219395509 65.2322601758593 1.675
291 1 1 185.437275230083 46.5103270766865 1.675
292 1 1 56.4509696499347 25.2133660651962 1.675
293 1 1 24.1551695901221 2.30370997496721 1.675
294 1 1 125.67965387145 17.8666921742246 1.675
295 1 1 101.110099674965 0.982024669102691 1.675
296 1 1 181.651425016637 74.1719420548114 1.675
297 1 1 38.4203363716203 48.6452109597263 1.675
298 1 1 177.373793533464 38.9077118272387 1.675
299 1 1 143.434732609096 54.3678448041026 1.675
300 1 1 30.3176851164193 57.2647253820267 1.675
301 1 1 185.955805056388 47.8069585271757 1.675
302 1 1 66.1259922683629 26.6098352304164 1.675
303 1 1 27.5117266493329 0.759556854644424 1.675
304 1 1 130.065721755484 9.82816994867196 1.675
305 1 1 92.9088058800025 74.17924776151 1.675
306 1 1 178.898097243931 66.9005527965465 1.675
307 1 1 39.7614654795522 48.2559822158973 1.675
308 1 1 168.940981959416 35.3379611613449 1.675
309 1 1 151.570940705929 56.8084986114903 1.675
310 1 1 26.2173863975266 63.8708941481692 1.675
311 1 1 176.45394903469 50.1028071376963 1.675
312 1 1 66.1259922608433 25.2133660044164 1.675
313 1 1 27.0656560674395 10.5246584753508 1.675
314 1 1 133.955978268517 16.560169615689 1.675
315 1 1 101.8649311507 72.2705175564716 1.675
316 1 1 184.019143642275 73.6776876676587 1.675
317 1 1 34.0490688114667 41.0988909494063 1.675
318 1 1 170.35328685388 40.7423497165422 1.675
319 1 1 143.795883597181 56.7594862700665 1.675
320 1 1 35.0744865660716 61.5455538320719 1.675
321 1 1 178.873189393586 52.8953257608896 1.675
322 1 1 55.2415918342239 27.3080699251797 1.675
323 1 1 31.2350854041498 10.1160074181644 1.675
324 1 1 124.548172138898 10.6991849847018 1.675
325 1 1 97.8614203321302 67.2780679172689 1.675
326 1 1 187.142684738089 70.8858016069695 1.675
327 1 1 35.7236804970218 39.3535959484065 1.675
328 1 1 172.915167294387 31.4126749563944 1.675
329 1 1 150.997319703683 48.3334981983479 1.675
330 1 1 29.5884912415933 68.3248444279533 1.675
331 1 1 178.007841953275 44.217417041984 1.675
332 1 1 56.4509696374021 22.4204276146433 1.675
333 1 1 21.6114848247693 4.98336517697135 1.675
334 1 1 131.574364048657 19.3848461964237 1.675
335 1 1 93.7209757187164 1.04823331136325 1.675
336 1 1 178.142274773962 69.1981844833446 1.675
337 1 1 32.7151385419767 46.5231559687999 1.675
338 1 1 175.73977710212 42.2214520693533 1.675
339 1 1 144.093245487834 49.3760512681104 1.675
340 1 1 27.546291860808 57.6109690243224 1.675
341 1 1 182.156080617421 54.5904686384456 1.675
342 1 1 187.613149294783 67.22116694866 1.675
343 1 1 30.9741878650322 68.1517226010359 1.675
344 1 1 181.635854188537 43.5185527498803 1.675
345 1 1 130.194976648539 19.6025999554295 1.675
346 1 1 97.1639272095127 2.38874409857783 1.675
347 1 1 178.427632672722 70.5651874711907 1.675
348 1 1 185.265563013486 52.5949728838644 1.675
349 1 1 26.1219168613894 0.895773875432073 1.675
350 1 1 178.014263636316 36.5752931391029 1.675
351 1 1 64.9166144601715 28.7045390773756 1.675
352 1 1 29.7144087152649 1.75884190198233 1.675
353 1 1 127.808060370837 8.96021605491666 1.675
354 1 1 92.0966360414073 71.9009240209194 1.675
355 1 1 179.653919712541 64.6029211277719 1.675
356 1 1 41.4360771519006 46.5106872161204 1.675
357 1 1 168.300511848191 37.6703798471815 1.675
358 1 1 149.680293937929 58.3170852639775 1.675
359 1 1 25.9175306056082 61.4707971881038 1.675
360 1 1 176.799070064735 47.7087999605909 1.675
361 1 1 64.9166144225738 23.1186621748228 1.675
362 1 1 24.8629739969423 9.52537342594179 1.675
363 1 1 133.57881769464 14.1710005570151 1.675
364 1 1 101.052761313788 69.992193820603 1.675
365 1 1 32.3744571328531 42.8441859431717 1.675
366 1 1 168.653588067655 39.0214769874399 1.675
367 1 1 146.047681347102 57.6425410717994 1.675
368 1 1 35.3743423573686 63.9456507871629 1.675
369 1 1 180.773899919728 54.3912129174696 1.675
370 1 1 122.667671323449 12.2204001478214 1.675
371 1 1 187.898507198451 68.5881699354817 1.675
372 1 1 37.3982921756354 37.6083009546411 1.675
373 1 1 175.255336183464 30.8011289973609 1.675
374 1 1 27.3600184077969 67.3844786785272 1.675
375 1 1 180.253673499439 43.3192970301431 1.675
376 1 1 21.8474196326406 7.39058632506853 1.675
377 1 1 133.454864858646 17.8636310265534 1.675
378 1 1 33.3893025182664 48.8460597168026 1.675
379 1 1 173.399608208193 42.8329980296543 1.675
380 1 1 184.40191216036 53.6923486185427 1.675
381 1 1 61.2884810030129 30.799242946042 1.675
382 1 1 32.3889603796567 7.57256924720852 1.675
383 1 1 95.2306386864245 68.2158808630074 1.675
384 1 1 184.389356967365 63.6144123704658 1.675
385 1 1 41.762360888347 40.119584715498 1.675
386 1 1 153.100436495927 52.9082705016564 1.675
387 1 1 99.5430983623188 2.82454624986518 1.675
388 1 1 143.073581628848 51.9762033318853 1.675
389 1 1 32.546157945597 58.2050911295038 1.675
390 1 1 186.386862267912 73.183433280506 1.675
391 1 1 56.450969685026 29.4027737591147 1.675
392 1 1 29.2683381379367 11.5239435247598 1.675
393 1 1 123.044831907466 14.6095692150448 1.675
394 1 1 100.240591483372 67.713870077097 1.675
395 1 1 39.747067817332 38.1859097101013 1.675
396 1 1 176.955034966166 32.5220017228966 1.675
397 1 1 148.745521956932 47.4504433885315 1.675
398 1 1 57.660347458126 20.3257237633427 1.675
399 1 1 35.7380781620365 49.4236684638312 1.675
400 1 1 145.983892269087 47.8674646161569 1.675
401 1 1 25.6176748103141 59.0707002360381 1.675
402 1 1 63.7072366519802 30.7992429243349 1.675
403 1 1 31.9170907811969 2.75812694932025 1.675
404 1 1 132.323383140131 10.6961238424273 1.675
405 1 1 43.1106888242489 44.7653922163435 1.675
406 1 1 169.581452073295 33.0055424658402 1.675
407 1 1 153.461587473929 55.2999119590031 1.675
408 1 1 26.5172421986823 66.2709911121325 1.675
409 1 1 177.14419109621 45.314792773562 1.675
410 1 1 63.7072365843042 21.0239583452292 1.675
411 1 1 22.660291927423 8.52608838651105 1.675
412 1 1 133.201657120763 11.7818314983412 1.675
413 1 1 102.677100987612 74.5488412923402 1.675
414 1 1 172.052985649805 42.4632224431095 1.675
415 1 1 148.299479097022 58.5255958735324 1.675
416 1 1 34.7746307747747 59.1454568769809 1.675
417 1 1 176.972478860994 51.3994385881855 1.675
418 1 1 126.428672962143 9.17796981527645 1.675
419 1 1 187.042433495104 64.4871609748968 1.675
420 1 1 170.574998405311 32.0242209154279 1.675
421 1 1 33.7455811114061 67.8054789548423 1.675
422 1 1 184.400215566375 43.9170641817054 1.675
423 1 1 62.4978587560608 20.3257237372942 1.675
424 1 1 21.3755500240724 2.57614401305982 1.675
425 1 1 127.436201850906 20.0381074806432 1.675
426 1 1 94.5331455671736 3.32655705376028 1.675
427 1 1 178.998348479083 73.2991934524292 1.675
428 1 1 32.040974569834 44.200252203934 1.675
429 1 1 178.079945989001 41.6099061019192 1.675
430 1 1 186.992864724751 50.4002214202954 1.675
431 1 1 57.6603475358281 31.4974775930497 1.675
432 1 1 32.965897871133 6.30085016262494 1.675
433 1 1 123.421992491482 16.9987382822682 1.675
434 1 1 92.3482465358713 70.5273089153529 1.675
435 1 1 180.695100076571 63.6722924431058 1.675
436 1 1 43.4441713949306 43.4093259664071 1.675
437 1 1 178.654733748868 34.2428744484322 1.675
438 1 1 153.249117450434 49.2165530081643 1.675
439 1 1 35.6741981486655 66.345747742254 1.675
440 1 1 186.300926087148 45.4129513451085 1.675
441 1 1 55.2415918166782 24.515131465944 1.675
442 1 1 23.3422972953397 1.16820791352469 1.675
443 1 1 125.178540461579 19.170153585089 1.675
444 1 1 102.425490498079 0.513118194809993 1.675
445 1 1 182.977963281585 74.6083163560625 1.675
446 1 1 38.0868538058066 50.0012772108598 1.675
447 1 1 178.720416091853 39.2774874137834 1.675
448 1 1 142.924900681254 55.6679208420781 1.675
449 1 1 31.7033817404796 57.0916035600837 1.675
450 1 1 187.337985746202 48.0062142419511 1.675
451 1 1 67.3353700991129 27.30806983401 1.675
452 1 1 28.0886641408092 74.8971759740608 1.675
453 1 1 130.566835170034 8.52470853960643 1.675
454 1 1 91.5934150585722 74.6481542405246 1.675
455 1 1 177.571558977416 66.4641785000574 1.675
456 1 1 40.7691120181848 49.2228197163837 1.675
457 1 1 167.594359402355 34.9681855699661 1.675
458 1 1 152.44192361644 57.9000640326917 1.675
459 1 1 24.8316897740878 64.0440159750865 1.675
460 1 1 175.071768344161 49.9035514278827 1.675
461 1 1 67.3353700815672 24.5151313834571 1.675
462 1 1 26.4887185805284 11.7963775620054 1.675
463 1 1 135.335365668635 16.3424158566831 1.675
464 1 1 103.180321973814 71.8016110821789 1.675
465 1 1 185.345681907223 74.1140619689098 1.675
466 1 1 33.0414222763048 40.1320534453027 1.675
467 1 1 169.359740525387 41.7236712705211 1.675
468 1 1 143.286051669339 58.059562308042 1.675
469 1 1 36.460183190132 61.372432010129 1.675
470 1 1 178.009538532581 53.9927014893673 1.675
471 1 1 55.2415918467564 28.7045391511797 1.675
472 1 1 32.6248951834518 9.97979039822374 1.675
473 1 1 123.669898154369 9.6134773319406 1.675
474 1 1 96.7976400040021 66.3733592831481 1.675
475 1 1 188.469223003037 71.3221759082205 1.675
476 1 1 34.7160339549184 38.3867584515373 1.675
477 1 1 172.562091070074 30.0615778174035 1.675
478 1 1 152.378134543841 48.1249875838362 1.675
479 1 1 29.0455708283943 69.6114538185986 1.675
480 1 1 177.489312122316 42.9207855933562 1.675
481 1 1 55.2415918141717 23.1186622312612 1.675
482 1 1 20.2216750449783 5.11958219192291 1.675
483 1 1 132.452638037084 20.470553846032 1.675
484 1 1 92.4055848972861 1.51713979037793 1.675
485 1 1 176.815736507447 68.7618101868556 1.675
486 1 1 31.3740094340447 46.9123847126289 1.675
487 1 1 176.092853331284 43.5725492070768 1.675
488 1 1 142.712430646928 49.5845618776652 1.675
489 1 1 28.0892122786257 56.324359635626 1.675
490 1 1 182.674610453035 55.887100085212 1.675
491 1 1 60.0791031070934 20.3257237503184 1.675
492 1 1 60.0791031847955 31.4974775713427 1.675
493 1 1 32.7299630719031 3.89362901368081 1.675
494 1 1 93.9152478551322 68.6847873402156 1.675
495 1 1 183.062818703983 63.1780380644527 1.675
496 1 1 42.7700074269796 41.0864222159844 1.675
497 1 1 153.610268428436 51.6081944655111 1.675
498 1 1 100.858489185432 2.35563977557248 1.675
499 1 1 180.610244649266 75.1025707357399 1.675
500 1 1 142.563749702504 53.2762793797745 1.675
501 1 1 29.4749089113019 56.1512378126066 1.675
502 1 1 54.0322140059804 26.6098353172447 1.675
503 1 1 30.6581479172387 11.3877265048191 1.675
504 1 1 99.1768111552438 66.8091614429762 1.675
505 1 1 150.12633679709 47.2419327740198 1.675
506 1 1 56.4509696298826 21.0239583886433 1.675
507 1 1 144.603077420343 48.0759752319651 1.675
508 1 1 26.1605952361262 57.784090841291 1.675
509 1 1 188.654329658813 66.2905382639939 1.675
510 1 1 31.8169640741468 69.2652101674306 1.675
511 1 1 182.499505045602 42.4211770183023 1.675
512 1 1 129.693863238668 20.906061366294 1.675
513 1 1 96.9123167199797 3.76235920504762 1.675
514 1 1 177.386452305352 71.4958161521192 1.675
515 1 1 186.6477437033 52.7942285986397 1.675
516 1 1 25.3090445747594 75.1696100121535 1.675
517 1 1 179.360886194704 36.9450687256477 1.675
518 1 1 66.1259922909215 29.4027736809692 1.675
519 1 1 30.2913462067412 0.487122817398761 1.675
520 1 1 128.309173785387 7.65675464585114 1.675
521 1 1 90.7812452166105 72.3698304904901 1.675
522 1 1 178.327381449159 64.1665468217589 1.675
523 1 1 42.4437236905332 47.4775247166068 1.675
524 1 1 166.953889288476 37.3006042654709 1.675
525 1 1 150.55127684844 59.4086506851789 1.675
526 1 1 24.5318339809264 61.6439190050724 1.675
527 1 1 175.416889375636 47.5095442408538 1.675
528 1 1 66.1259922432977 22.4204275538635 1.675
529 1 1 24.2860365100312 10.7970925125964 1.675
530 1 1 134.958205094758 13.9532467980092 1.675
531 1 1 102.368152136902 69.5232873463104 1.675
532 1 1 31.3668105907497 41.8773484463026 1.675
533 1 1 167.660041732117 40.0027985342856 1.675
534 1 1 145.53784941926 58.9426171097749 1.675
535 1 1 36.7600389814289 63.77252896522 1.675
536 1 1 179.910249066603 55.4885886521479 1.675
537 1 1 121.789397331125 11.1346925013659 1.675
538 1 1 189.2250454634 69.0245442367327 1.675
539 1 1 36.3906456404735 36.6414634505375 1.675
540 1 1 176.601958741852 31.1709045839057 1.675
541 1 1 26.8170979945979 68.6710880691726 1.675
542 1 1 179.735143668479 42.0226655815154 1.675
543 1 1 20.4576098538276 7.52680334999835 1.675
544 1 1 134.333138847073 18.9493386761617 1.675
545 1 1 32.048173413129 49.2352884702603 1.675
546 1 1 173.752684437357 44.1840951673777 1.675
547 1 1 184.920441995974 54.988980065309 1.675
548 1 1 62.4978588337628 31.4974775496356 1.675
549 1 1 33.2018326703629 8.70807131156908 1.675
550 1 1 95.4822491808885 66.8422657574408 1.675
551 1 1 185.430537331395 62.6837836857997 1.675
552 1 1 42.0958434590286 38.7635184655616 1.675
553 1 1 153.971419406438 53.9998359228578 1.675
554 1 1 99.2914878727858 4.19816135633497 1.675
555 1 1 142.202598714419 50.8846379138105 1.675
556 1 1 33.9318545696573 58.0319693075608 1.675
557 1 1 187.713400532861 73.6198075817571 1.675
558 1 1 56.4509696975586 30.7992429851147 1.675
559 1 1 28.6914006510256 12.7956626114144 1.675
560 1 1 122.543718497595 15.9130306259092 1.675
561 1 1 101.555982306485 67.2449636028043 1.675
562 1 1 41.0881969238667 37.796680961458 1.675
563 1 1 178.301657524554 32.8917773094413 1.675
564 1 1 147.87453905034 46.3588779642035 1.675
565 1 1 57.6603474506065 18.9292545373427 1.675
566 1 1 34.3969490568991 49.8128972172889 1.675
567 1 1 146.493724201596 46.5673885800116 1.675
568 1 1 24.2319781856323 59.2438220530067 1.675
569 1 1 64.9166144827302 31.4974775279285 1.675
570 1 1 32.4940282726731 1.48640786473667 1.675
571 1 1 132.824496554682 9.39266243336174 1.675
572 1 1 44.1183353628816 45.7322297168299 1.675
573 1 1 168.234829516234 32.6357668744613 1.675
574 1 1 154.33257038444 56.3914773802045 1.675
575 1 1 25.1315455752435 66.4441129390499 1.675
576 1 1 175.762010407112 45.1155370538249 1.675
577 1 1 64.9166144050282 20.3257237242699 1.675
578 1 1 22.083354440512 9.79780747316571 1.675
579 1 1 134.581044520881 11.5640777393354 1.675
580 1 1 103.992491810726 74.0799348180475 1.675
581 1 1 171.059439321312 43.4445439970884 1.675
582 1 1 147.78964716918 59.8256719115078 1.675
583 1 1 36.1603273988351 58.9723350550379 1.675
584 1 1 176.10882799999 52.4968143166632 1.675
585 1 1 125.550398977614 8.09226216251529 1.675
586 1 1 188.368971760052 64.9235352761478 1.675
587 1 1 170.221922180997 30.673123776437 1.675
588 1 1 33.2026606982071 69.0920883454876 1.675
589 1 1 185.782396256189 44.1163198964808 1.675
590 1 1 62.4978587485412 18.9292545112942 1.675
591 1 1 19.9857402442814 2.71236102801139 1.675
592 1 1 128.314475839332 21.1238151302515 1.675
593 1 1 93.2177547457433 3.79546353277496 1.675
594 1 1 179.283706382751 74.6661964392508 1.675
595 1 1 30.699845461902 44.589480947763 1.675
596 1 1 179.073492321017 40.6285845515068 1.675
597 1 1 187.856515581815 49.3028456887174 1.675
598 1 1 57.6603475483607 32.8939468190497 1.675
599 1 1 34.355707650435 6.16463314268425 1.675
600 1 1 122.920879081611 18.3021996931326 1.675
601 1 1 91.2844662012478 69.6226002888696 1.675
602 1 1 180.40974217781 62.3052894552598 1.675
603 1 1 44.7853005014653 43.0200972177638 1.675
604 1 1 180.001356307256 34.612650034977 1.675
605 1 1 154.629932290592 49.0080423936526 1.675
606 1 1 35.1312777354665 67.6323571328993 1.675
607 1 1 187.683106776962 45.6122070598839 1.675
608 1 1 54.0322139934478 25.2133660825619 1.675
609 1 1 23.919234786816 75.3058270329411 1.675
610 1 1 123.799153062243 19.3879073490466 1.675
611 1 1 103.489270829455 1.41782682511201 1.675
612 1 1 183.263321185253 0.565981138884112 1.675
613 1 1 36.7457247006691 50.3905059643176 1.675
614 1 1 179.713962423868 38.2961658633711 1.675
615 1 1 141.544085841845 55.8764314615466 1.675
616 1 1 32.2463021582973 55.8049941713873 1.675
617 1 1 188.201636603266 46.9088385103731 1.675
618 1 1 67.3353701116454 28.70453906001 1.675
619 1 1 27.2757918541792 73.7616739067822 1.675
620 1 1 129.688561185505 7.43900088684527 1.675
621 1 1 90.5296347239486 73.7434456140414 1.675
622 1 1 176.530378610045 67.3948071809859 1.675
623 1 1 42.1102411247195 48.8335909677403 1.675
624 1 1 166.600813066817 35.9495071168118 1.675
625 1 1 153.822738456598 57.69155341818 1.675
626 1 1 23.988913560976 62.9305284117173 1.675